s 5.000000000 _62_ RTR  --- 0 AODV 34 [0 0 0 0] ------- [62:255 -1:255 0 0] -aodv:h 0 -aodv:c MESH_REQUES 
r 5.001296133 _47_ RTR  --- 0 AODV 34 [0 ffffffff 3e 800] ------- [62:255 -1:255 0 0] -aodv:h 0 -aodv:c MESH_REQUES 
r 5.001296133 _61_ RTR  --- 0 AODV 34 [0 ffffffff 3e 800] ------- [62:255 -1:255 0 0] -aodv:h 0 -aodv:c MESH_REQUES 
r 5.001296133 _77_ RTR  --- 0 AODV 34 [0 ffffffff 3e 800] ------- [62:255 -1:255 0 0] -aodv:h 0 -aodv:c MESH_REQUES 
r 5.001296133 _63_ RTR  --- 0 AODV 34 [0 ffffffff 3e 800] ------- [62:255 -1:255 0 0] -aodv:h 0 -aodv:c MESH_REQUES 
r 5.001296189 _76_ RTR  --- 0 AODV 34 [0 ffffffff 3e 800] ------- [62:255 -1:255 0 0] -aodv:h 0 -aodv:c MESH_REQUES 
r 5.001296189 _46_ RTR  --- 0 AODV 34 [0 ffffffff 3e 800] ------- [62:255 -1:255 0 0] -aodv:h 0 -aodv:c MESH_REQUES 
r 5.001296189 _48_ RTR  --- 0 AODV 34 [0 ffffffff 3e 800] ------- [62:255 -1:255 0 0] -aodv:h 0 -aodv:c MESH_REQUES 
r 5.001296189 _78_ RTR  --- 0 AODV 34 [0 ffffffff 3e 800] ------- [62:255 -1:255 0 0] -aodv:h 0 -aodv:c MESH_REQUES 
r 5.001296267 _32_ RTR  --- 0 AODV 34 [0 ffffffff 3e 800] ------- [62:255 -1:255 0 0] -aodv:h 0 -aodv:c MESH_REQUES 
r 5.001296267 _60_ RTR  --- 0 AODV 34 [0 ffffffff 3e 800] ------- [62:255 -1:255 0 0] -aodv:h 0 -aodv:c MESH_REQUES 
r 5.001296267 _92_ RTR  --- 0 AODV 34 [0 ffffffff 3e 800] ------- [62:255 -1:255 0 0] -aodv:h 0 -aodv:c MESH_REQUES 
r 5.001296267 _64_ RTR  --- 0 AODV 34 [0 ffffffff 3e 800] ------- [62:255 -1:255 0 0] -aodv:h 0 -aodv:c MESH_REQUES 
r 5.001296298 _91_ RTR  --- 0 AODV 34 [0 ffffffff 3e 800] ------- [62:255 -1:255 0 0] -aodv:h 0 -aodv:c MESH_REQUES 
r 5.001296298 _31_ RTR  --- 0 AODV 34 [0 ffffffff 3e 800] ------- [62:255 -1:255 0 0] -aodv:h 0 -aodv:c MESH_REQUES 
r 5.001296298 _75_ RTR  --- 0 AODV 34 [0 ffffffff 3e 800] ------- [62:255 -1:255 0 0] -aodv:h 0 -aodv:c MESH_REQUES 
r 5.001296298 _45_ RTR  --- 0 AODV 34 [0 ffffffff 3e 800] ------- [62:255 -1:255 0 0] -aodv:h 0 -aodv:c MESH_REQUES 
r 5.001296298 _33_ RTR  --- 0 AODV 34 [0 ffffffff 3e 800] ------- [62:255 -1:255 0 0] -aodv:h 0 -aodv:c MESH_REQUES 
r 5.001296298 _93_ RTR  --- 0 AODV 34 [0 ffffffff 3e 800] ------- [62:255 -1:255 0 0] -aodv:h 0 -aodv:c MESH_REQUES 
r 5.001296298 _49_ RTR  --- 0 AODV 34 [0 ffffffff 3e 800] ------- [62:255 -1:255 0 0] -aodv:h 0 -aodv:c MESH_REQUES 
r 5.001296298 _79_ RTR  --- 0 AODV 34 [0 ffffffff 3e 800] ------- [62:255 -1:255 0 0] -aodv:h 0 -aodv:c MESH_REQUES 
s 5.001438180 _47_ RTR  --- 0 AODV 34 [0 ffffffff 3e 800] ------- [47:255 -1:255 -1 0] -aodv:h 1 -aodv:c MESH_REQUES 
s 5.001724212 _64_ RTR  --- 0 AODV 34 [0 ffffffff 3e 800] ------- [64:255 -1:255 -1 0] -aodv:h 1 -aodv:c MESH_REQUES 
s 5.002177360 _61_ RTR  --- 0 AODV 34 [0 ffffffff 3e 800] ------- [61:255 -1:255 -1 0] -aodv:h 1 -aodv:c MESH_REQUES 
s 5.002237687 _93_ RTR  --- 0 AODV 34 [0 ffffffff 3e 800] ------- [93:255 -1:255 -1 0] -aodv:h 1 -aodv:c MESH_REQUES 
s 5.002434381 _31_ RTR  --- 0 AODV 34 [0 ffffffff 3e 800] ------- [31:255 -1:255 -1 0] -aodv:h 1 -aodv:c MESH_REQUES 
r 5.002494313 _32_ RTR  --- 0 AODV 34 [0 ffffffff 2f 800] ------- [47:255 -1:255 -1 0] -aodv:h 1 -aodv:c MESH_REQUES 
r 5.002494313 _46_ RTR  --- 0 AODV 34 [0 ffffffff 2f 800] ------- [47:255 -1:255 -1 0] -aodv:h 1 -aodv:c MESH_REQUES 
r 5.002494313 _62_ RTR  --- 0 AODV 34 [0 ffffffff 2f 800] ------- [47:255 -1:255 -1 0] -aodv:h 1 -aodv:c MESH_REQUES 
r 5.002494313 _48_ RTR  --- 0 AODV 34 [0 ffffffff 2f 800] ------- [47:255 -1:255 -1 0] -aodv:h 1 -aodv:c MESH_REQUES 
r 5.002494369 _61_ RTR  --- 0 AODV 34 [0 ffffffff 2f 800] ------- [47:255 -1:255 -1 0] -aodv:h 1 -aodv:c MESH_REQUES 
r 5.002494369 _31_ RTR  --- 0 AODV 34 [0 ffffffff 2f 800] ------- [47:255 -1:255 -1 0] -aodv:h 1 -aodv:c MESH_REQUES 
r 5.002494369 _33_ RTR  --- 0 AODV 34 [0 ffffffff 2f 800] ------- [47:255 -1:255 -1 0] -aodv:h 1 -aodv:c MESH_REQUES 
r 5.002494369 _63_ RTR  --- 0 AODV 34 [0 ffffffff 2f 800] ------- [47:255 -1:255 -1 0] -aodv:h 1 -aodv:c MESH_REQUES 
r 5.002494447 _17_ RTR  --- 0 AODV 34 [0 ffffffff 2f 800] ------- [47:255 -1:255 -1 0] -aodv:h 1 -aodv:c MESH_REQUES 
r 5.002494447 _45_ RTR  --- 0 AODV 34 [0 ffffffff 2f 800] ------- [47:255 -1:255 -1 0] -aodv:h 1 -aodv:c MESH_REQUES 
r 5.002494447 _77_ RTR  --- 0 AODV 34 [0 ffffffff 2f 800] ------- [47:255 -1:255 -1 0] -aodv:h 1 -aodv:c MESH_REQUES 
r 5.002494447 _49_ RTR  --- 0 AODV 34 [0 ffffffff 2f 800] ------- [47:255 -1:255 -1 0] -aodv:h 1 -aodv:c MESH_REQUES 
r 5.002494478 _76_ RTR  --- 0 AODV 34 [0 ffffffff 2f 800] ------- [47:255 -1:255 -1 0] -aodv:h 1 -aodv:c MESH_REQUES 
r 5.002494478 _16_ RTR  --- 0 AODV 34 [0 ffffffff 2f 800] ------- [47:255 -1:255 -1 0] -aodv:h 1 -aodv:c MESH_REQUES 
r 5.002494478 _60_ RTR  --- 0 AODV 34 [0 ffffffff 2f 800] ------- [47:255 -1:255 -1 0] -aodv:h 1 -aodv:c MESH_REQUES 
r 5.002494478 _30_ RTR  --- 0 AODV 34 [0 ffffffff 2f 800] ------- [47:255 -1:255 -1 0] -aodv:h 1 -aodv:c MESH_REQUES 
r 5.002494478 _18_ RTR  --- 0 AODV 34 [0 ffffffff 2f 800] ------- [47:255 -1:255 -1 0] -aodv:h 1 -aodv:c MESH_REQUES 
r 5.002494478 _78_ RTR  --- 0 AODV 34 [0 ffffffff 2f 800] ------- [47:255 -1:255 -1 0] -aodv:h 1 -aodv:c MESH_REQUES 
r 5.002494478 _34_ RTR  --- 0 AODV 34 [0 ffffffff 2f 800] ------- [47:255 -1:255 -1 0] -aodv:h 1 -aodv:c MESH_REQUES 
r 5.002494478 _64_ RTR  --- 0 AODV 34 [0 ffffffff 2f 800] ------- [47:255 -1:255 -1 0] -aodv:h 1 -aodv:c MESH_REQUES 
s 5.002937721 _92_ RTR  --- 0 AODV 34 [0 ffffffff 3e 800] ------- [92:255 -1:255 -1 0] -aodv:h 1 -aodv:c MESH_REQUES 
s 5.003044351 _33_ RTR  --- 0 AODV 34 [0 ffffffff 3e 800] ------- [33:255 -1:255 -1 0] -aodv:h 1 -aodv:c MESH_REQUES 
r 5.003300611 _49_ RTR  --- 0 AODV 34 [0 ffffffff 40 800] ------- [64:255 -1:255 -1 0] -aodv:h 1 -aodv:c MESH_REQUES 
r 5.003300611 _63_ RTR  --- 0 AODV 34 [0 ffffffff 40 800] ------- [64:255 -1:255 -1 0] -aodv:h 1 -aodv:c MESH_REQUES 
r 5.003300611 _79_ RTR  --- 0 AODV 34 [0 ffffffff 40 800] ------- [64:255 -1:255 -1 0] -aodv:h 1 -aodv:c MESH_REQUES 
r 5.003300611 _65_ RTR  --- 0 AODV 34 [0 ffffffff 40 800] ------- [64:255 -1:255 -1 0] -aodv:h 1 -aodv:c MESH_REQUES 
r 5.003300667 _78_ RTR  --- 0 AODV 34 [0 ffffffff 40 800] ------- [64:255 -1:255 -1 0] -aodv:h 1 -aodv:c MESH_REQUES 
r 5.003300667 _48_ RTR  --- 0 AODV 34 [0 ffffffff 40 800] ------- [64:255 -1:255 -1 0] -aodv:h 1 -aodv:c MESH_REQUES 
r 5.003300667 _50_ RTR  --- 0 AODV 34 [0 ffffffff 40 800] ------- [64:255 -1:255 -1 0] -aodv:h 1 -aodv:c MESH_REQUES 
r 5.003300667 _80_ RTR  --- 0 AODV 34 [0 ffffffff 40 800] ------- [64:255 -1:255 -1 0] -aodv:h 1 -aodv:c MESH_REQUES 
r 5.003300745 _34_ RTR  --- 0 AODV 34 [0 ffffffff 40 800] ------- [64:255 -1:255 -1 0] -aodv:h 1 -aodv:c MESH_REQUES 
r 5.003300745 _62_ RTR  --- 0 AODV 34 [0 ffffffff 40 800] ------- [64:255 -1:255 -1 0] -aodv:h 1 -aodv:c MESH_REQUES 
r 5.003300745 _94_ RTR  --- 0 AODV 34 [0 ffffffff 40 800] ------- [64:255 -1:255 -1 0] -aodv:h 1 -aodv:c MESH_REQUES 
r 5.003300745 _66_ RTR  --- 0 AODV 34 [0 ffffffff 40 800] ------- [64:255 -1:255 -1 0] -aodv:h 1 -aodv:c MESH_REQUES 
r 5.003300776 _93_ RTR  --- 0 AODV 34 [0 ffffffff 40 800] ------- [64:255 -1:255 -1 0] -aodv:h 1 -aodv:c MESH_REQUES 
r 5.003300776 _33_ RTR  --- 0 AODV 34 [0 ffffffff 40 800] ------- [64:255 -1:255 -1 0] -aodv:h 1 -aodv:c MESH_REQUES 
r 5.003300776 _77_ RTR  --- 0 AODV 34 [0 ffffffff 40 800] ------- [64:255 -1:255 -1 0] -aodv:h 1 -aodv:c MESH_REQUES 
r 5.003300776 _47_ RTR  --- 0 AODV 34 [0 ffffffff 40 800] ------- [64:255 -1:255 -1 0] -aodv:h 1 -aodv:c MESH_REQUES 
r 5.003300776 _35_ RTR  --- 0 AODV 34 [0 ffffffff 40 800] ------- [64:255 -1:255 -1 0] -aodv:h 1 -aodv:c MESH_REQUES 
r 5.003300776 _95_ RTR  --- 0 AODV 34 [0 ffffffff 40 800] ------- [64:255 -1:255 -1 0] -aodv:h 1 -aodv:c MESH_REQUES 
r 5.003300776 _51_ RTR  --- 0 AODV 34 [0 ffffffff 40 800] ------- [64:255 -1:255 -1 0] -aodv:h 1 -aodv:c MESH_REQUES 
r 5.003300776 _81_ RTR  --- 0 AODV 34 [0 ffffffff 40 800] ------- [64:255 -1:255 -1 0] -aodv:h 1 -aodv:c MESH_REQUES 
s 5.003408860 _81_ RTR  --- 0 AODV 34 [0 ffffffff 40 800] ------- [81:255 -1:255 -2 0] -aodv:h 2 -aodv:c MESH_REQUES 
s 5.003642206 _48_ RTR  --- 0 AODV 34 [0 ffffffff 3e 800] ------- [48:255 -1:255 -1 0] -aodv:h 1 -aodv:c MESH_REQUES 
s 5.003884802 _51_ RTR  --- 0 AODV 34 [0 ffffffff 40 800] ------- [51:255 -1:255 -2 0] -aodv:h 2 -aodv:c MESH_REQUES 
r 5.004226910 _18_ RTR  --- 0 AODV 34 [0 ffffffff 21 800] ------- [33:255 -1:255 -1 0] -aodv:h 1 -aodv:c MESH_REQUES 
r 5.004226910 _32_ RTR  --- 0 AODV 34 [0 ffffffff 21 800] ------- [33:255 -1:255 -1 0] -aodv:h 1 -aodv:c MESH_REQUES 
r 5.004226910 _48_ RTR  --- 0 AODV 34 [0 ffffffff 21 800] ------- [33:255 -1:255 -1 0] -aodv:h 1 -aodv:c MESH_REQUES 
r 5.004226910 _34_ RTR  --- 0 AODV 34 [0 ffffffff 21 800] ------- [33:255 -1:255 -1 0] -aodv:h 1 -aodv:c MESH_REQUES 
r 5.004226965 _47_ RTR  --- 0 AODV 34 [0 ffffffff 21 800] ------- [33:255 -1:255 -1 0] -aodv:h 1 -aodv:c MESH_REQUES 
r 5.004226965 _17_ RTR  --- 0 AODV 34 [0 ffffffff 21 800] ------- [33:255 -1:255 -1 0] -aodv:h 1 -aodv:c MESH_REQUES 
r 5.004226965 _19_ RTR  --- 0 AODV 34 [0 ffffffff 21 800] ------- [33:255 -1:255 -1 0] -aodv:h 1 -aodv:c MESH_REQUES 
r 5.004226965 _49_ RTR  --- 0 AODV 34 [0 ffffffff 21 800] ------- [33:255 -1:255 -1 0] -aodv:h 1 -aodv:c MESH_REQUES 
r 5.004227043 _3_ RTR  --- 0 AODV 34 [0 ffffffff 21 800] ------- [33:255 -1:255 -1 0] -aodv:h 1 -aodv:c MESH_REQUES 
r 5.004227043 _31_ RTR  --- 0 AODV 34 [0 ffffffff 21 800] ------- [33:255 -1:255 -1 0] -aodv:h 1 -aodv:c MESH_REQUES 
r 5.004227043 _63_ RTR  --- 0 AODV 34 [0 ffffffff 21 800] ------- [33:255 -1:255 -1 0] -aodv:h 1 -aodv:c MESH_REQUES 
r 5.004227043 _35_ RTR  --- 0 AODV 34 [0 ffffffff 21 800] ------- [33:255 -1:255 -1 0] -aodv:h 1 -aodv:c MESH_REQUES 
r 5.004227074 _62_ RTR  --- 0 AODV 34 [0 ffffffff 21 800] ------- [33:255 -1:255 -1 0] -aodv:h 1 -aodv:c MESH_REQUES 
r 5.004227074 _2_ RTR  --- 0 AODV 34 [0 ffffffff 21 800] ------- [33:255 -1:255 -1 0] -aodv:h 1 -aodv:c MESH_REQUES 
r 5.004227074 _46_ RTR  --- 0 AODV 34 [0 ffffffff 21 800] ------- [33:255 -1:255 -1 0] -aodv:h 1 -aodv:c MESH_REQUES 
r 5.004227074 _16_ RTR  --- 0 AODV 34 [0 ffffffff 21 800] ------- [33:255 -1:255 -1 0] -aodv:h 1 -aodv:c MESH_REQUES 
r 5.004227074 _4_ RTR  --- 0 AODV 34 [0 ffffffff 21 800] ------- [33:255 -1:255 -1 0] -aodv:h 1 -aodv:c MESH_REQUES 
r 5.004227074 _64_ RTR  --- 0 AODV 34 [0 ffffffff 21 800] ------- [33:255 -1:255 -1 0] -aodv:h 1 -aodv:c MESH_REQUES 
r 5.004227074 _20_ RTR  --- 0 AODV 34 [0 ffffffff 21 800] ------- [33:255 -1:255 -1 0] -aodv:h 1 -aodv:c MESH_REQUES 
r 5.004227074 _50_ RTR  --- 0 AODV 34 [0 ffffffff 21 800] ------- [33:255 -1:255 -1 0] -aodv:h 1 -aodv:c MESH_REQUES 
s 5.004387057 _32_ RTR  --- 0 AODV 34 [0 ffffffff 3e 800] ------- [32:255 -1:255 -1 0] -aodv:h 1 -aodv:c MESH_REQUES 
s 5.004392596 _65_ RTR  --- 0 AODV 34 [0 ffffffff 40 800] ------- [65:255 -1:255 -2 0] -aodv:h 2 -aodv:c MESH_REQUES 
s 5.004421089 _95_ RTR  --- 0 AODV 34 [0 ffffffff 40 800] ------- [95:255 -1:255 -2 0] -aodv:h 2 -aodv:c MESH_REQUES 
s 5.004425806 _76_ RTR  --- 0 AODV 34 [0 ffffffff 3e 800] ------- [76:255 -1:255 -1 0] -aodv:h 1 -aodv:c MESH_REQUES 
s 5.004666073 _16_ RTR  --- 0 AODV 34 [0 ffffffff 2f 800] ------- [16:255 -1:255 -2 0] -aodv:h 2 -aodv:c MESH_REQUES 
s 5.004783708 _79_ RTR  --- 0 AODV 34 [0 ffffffff 3e 800] ------- [79:255 -1:255 -1 0] -aodv:h 1 -aodv:c MESH_REQUES 
s 5.004906734 _30_ RTR  --- 0 AODV 34 [0 ffffffff 2f 800] ------- [30:255 -1:255 -2 0] -aodv:h 2 -aodv:c MESH_REQUES 
r 5.005173176 _16_ RTR  --- 0 AODV 34 [0 ffffffff 1f 800] ------- [31:255 -1:255 -1 0] -aodv:h 1 -aodv:c MESH_REQUES 
r 5.005173176 _30_ RTR  --- 0 AODV 34 [0 ffffffff 1f 800] ------- [31:255 -1:255 -1 0] -aodv:h 1 -aodv:c MESH_REQUES 
r 5.005173176 _46_ RTR  --- 0 AODV 34 [0 ffffffff 1f 800] ------- [31:255 -1:255 -1 0] -aodv:h 1 -aodv:c MESH_REQUES 
r 5.005173176 _32_ RTR  --- 0 AODV 34 [0 ffffffff 1f 800] ------- [31:255 -1:255 -1 0] -aodv:h 1 -aodv:c MESH_REQUES 
r 5.005173231 _45_ RTR  --- 0 AODV 34 [0 ffffffff 1f 800] ------- [31:255 -1:255 -1 0] -aodv:h 1 -aodv:c MESH_REQUES 
r 5.005173231 _15_ RTR  --- 0 AODV 34 [0 ffffffff 1f 800] ------- [31:255 -1:255 -1 0] -aodv:h 1 -aodv:c MESH_REQUES 
r 5.005173231 _17_ RTR  --- 0 AODV 34 [0 ffffffff 1f 800] ------- [31:255 -1:255 -1 0] -aodv:h 1 -aodv:c MESH_REQUES 
r 5.005173231 _47_ RTR  --- 0 AODV 34 [0 ffffffff 1f 800] ------- [31:255 -1:255 -1 0] -aodv:h 1 -aodv:c MESH_REQUES 
r 5.005173310 _1_ RTR  --- 0 AODV 34 [0 ffffffff 1f 800] ------- [31:255 -1:255 -1 0] -aodv:h 1 -aodv:c MESH_REQUES 
r 5.005173310 _61_ RTR  --- 0 AODV 34 [0 ffffffff 1f 800] ------- [31:255 -1:255 -1 0] -aodv:h 1 -aodv:c MESH_REQUES 
r 5.005173310 _33_ RTR  --- 0 AODV 34 [0 ffffffff 1f 800] ------- [31:255 -1:255 -1 0] -aodv:h 1 -aodv:c MESH_REQUES 
r 5.005173341 _60_ RTR  --- 0 AODV 34 [0 ffffffff 1f 800] ------- [31:255 -1:255 -1 0] -aodv:h 1 -aodv:c MESH_REQUES 
r 5.005173341 _0_ RTR  --- 0 AODV 34 [0 ffffffff 1f 800] ------- [31:255 -1:255 -1 0] -aodv:h 1 -aodv:c MESH_REQUES 
r 5.005173341 _2_ RTR  --- 0 AODV 34 [0 ffffffff 1f 800] ------- [31:255 -1:255 -1 0] -aodv:h 1 -aodv:c MESH_REQUES 
r 5.005173341 _18_ RTR  --- 0 AODV 34 [0 ffffffff 1f 800] ------- [31:255 -1:255 -1 0] -aodv:h 1 -aodv:c MESH_REQUES 
s 5.005174319 _80_ RTR  --- 0 AODV 34 [0 ffffffff 40 800] ------- [80:255 -1:255 -2 0] -aodv:h 2 -aodv:c MESH_REQUES 
r 5.005457506 _110_ RTR  --- 0 AODV 34 [0 ffffffff 5f 800] ------- [95:255 -1:255 -2 0] -aodv:h 2 -aodv:c MESH_REQUES 
r 5.005457506 _96_ RTR  --- 0 AODV 34 [0 ffffffff 5f 800] ------- [95:255 -1:255 -2 0] -aodv:h 2 -aodv:c MESH_REQUES 
r 5.005457561 _109_ RTR  --- 0 AODV 34 [0 ffffffff 5f 800] ------- [95:255 -1:255 -2 0] -aodv:h 2 -aodv:c MESH_REQUES 
r 5.005457561 _81_ RTR  --- 0 AODV 34 [0 ffffffff 5f 800] ------- [95:255 -1:255 -2 0] -aodv:h 2 -aodv:c MESH_REQUES 
r 5.005457561 _111_ RTR  --- 0 AODV 34 [0 ffffffff 5f 800] ------- [95:255 -1:255 -2 0] -aodv:h 2 -aodv:c MESH_REQUES 
r 5.005457639 _97_ RTR  --- 0 AODV 34 [0 ffffffff 5f 800] ------- [95:255 -1:255 -2 0] -aodv:h 2 -aodv:c MESH_REQUES 
r 5.005457671 _82_ RTR  --- 0 AODV 34 [0 ffffffff 5f 800] ------- [95:255 -1:255 -2 0] -aodv:h 2 -aodv:c MESH_REQUES 
r 5.005457671 _112_ RTR  --- 0 AODV 34 [0 ffffffff 5f 800] ------- [95:255 -1:255 -2 0] -aodv:h 2 -aodv:c MESH_REQUES 
s 5.005532866 _45_ RTR  --- 0 AODV 34 [0 ffffffff 3e 800] ------- [45:255 -1:255 -1 0] -aodv:h 1 -aodv:c MESH_REQUES 
s 5.005707867 _77_ RTR  --- 0 AODV 34 [0 ffffffff 3e 800] ------- [77:255 -1:255 -1 0] -aodv:h 1 -aodv:c MESH_REQUES 
s 5.005958840 _96_ RTR  --- 0 AODV 34 [0 ffffffff 5f 800] ------- [96:255 -1:255 -3 0] -aodv:h 3 -aodv:c MESH_REQUES 
r 5.005959310 _1_ RTR  --- 0 AODV 34 [0 ffffffff 10 800] ------- [16:255 -1:255 -2 0] -aodv:h 2 -aodv:c MESH_REQUES 
r 5.005959310 _15_ RTR  --- 0 AODV 34 [0 ffffffff 10 800] ------- [16:255 -1:255 -2 0] -aodv:h 2 -aodv:c MESH_REQUES 
r 5.005959310 _31_ RTR  --- 0 AODV 34 [0 ffffffff 10 800] ------- [16:255 -1:255 -2 0] -aodv:h 2 -aodv:c MESH_REQUES 
r 5.005959310 _17_ RTR  --- 0 AODV 34 [0 ffffffff 10 800] ------- [16:255 -1:255 -2 0] -aodv:h 2 -aodv:c MESH_REQUES 
r 5.005959365 _30_ RTR  --- 0 AODV 34 [0 ffffffff 10 800] ------- [16:255 -1:255 -2 0] -aodv:h 2 -aodv:c MESH_REQUES 
r 5.005959365 _0_ RTR  --- 0 AODV 34 [0 ffffffff 10 800] ------- [16:255 -1:255 -2 0] -aodv:h 2 -aodv:c MESH_REQUES 
r 5.005959365 _2_ RTR  --- 0 AODV 34 [0 ffffffff 10 800] ------- [16:255 -1:255 -2 0] -aodv:h 2 -aodv:c MESH_REQUES 
r 5.005959365 _32_ RTR  --- 0 AODV 34 [0 ffffffff 10 800] ------- [16:255 -1:255 -2 0] -aodv:h 2 -aodv:c MESH_REQUES 
r 5.005959443 _46_ RTR  --- 0 AODV 34 [0 ffffffff 10 800] ------- [16:255 -1:255 -2 0] -aodv:h 2 -aodv:c MESH_REQUES 
r 5.005959443 _18_ RTR  --- 0 AODV 34 [0 ffffffff 10 800] ------- [16:255 -1:255 -2 0] -aodv:h 2 -aodv:c MESH_REQUES 
r 5.005959474 _45_ RTR  --- 0 AODV 34 [0 ffffffff 10 800] ------- [16:255 -1:255 -2 0] -aodv:h 2 -aodv:c MESH_REQUES 
r 5.005959474 _47_ RTR  --- 0 AODV 34 [0 ffffffff 10 800] ------- [16:255 -1:255 -2 0] -aodv:h 2 -aodv:c MESH_REQUES 
r 5.005959474 _3_ RTR  --- 0 AODV 34 [0 ffffffff 10 800] ------- [16:255 -1:255 -2 0] -aodv:h 2 -aodv:c MESH_REQUES 
r 5.005959474 _33_ RTR  --- 0 AODV 34 [0 ffffffff 10 800] ------- [16:255 -1:255 -2 0] -aodv:h 2 -aodv:c MESH_REQUES 
s 5.006339672 _112_ RTR  --- 0 AODV 34 [0 ffffffff 5f 800] ------- [112:255 -1:255 -3 0] -aodv:h 3 -aodv:c MESH_REQUES 
r 5.006503694 _66_ RTR  --- 0 AODV 34 [0 ffffffff 51 800] ------- [81:255 -1:255 -2 0] -aodv:h 2 -aodv:c MESH_REQUES 
r 5.006503694 _80_ RTR  --- 0 AODV 34 [0 ffffffff 51 800] ------- [81:255 -1:255 -2 0] -aodv:h 2 -aodv:c MESH_REQUES 
r 5.006503694 _96_ RTR  --- 0 AODV 34 [0 ffffffff 51 800] ------- [81:255 -1:255 -2 0] -aodv:h 2 -aodv:c MESH_REQUES 
r 5.006503694 _82_ RTR  --- 0 AODV 34 [0 ffffffff 51 800] ------- [81:255 -1:255 -2 0] -aodv:h 2 -aodv:c MESH_REQUES 
r 5.006503750 _95_ RTR  --- 0 AODV 34 [0 ffffffff 51 800] ------- [81:255 -1:255 -2 0] -aodv:h 2 -aodv:c MESH_REQUES 
r 5.006503750 _65_ RTR  --- 0 AODV 34 [0 ffffffff 51 800] ------- [81:255 -1:255 -2 0] -aodv:h 2 -aodv:c MESH_REQUES 
r 5.006503750 _67_ RTR  --- 0 AODV 34 [0 ffffffff 51 800] ------- [81:255 -1:255 -2 0] -aodv:h 2 -aodv:c MESH_REQUES 
r 5.006503750 _97_ RTR  --- 0 AODV 34 [0 ffffffff 51 800] ------- [81:255 -1:255 -2 0] -aodv:h 2 -aodv:c MESH_REQUES 
r 5.006503828 _79_ RTR  --- 0 AODV 34 [0 ffffffff 51 800] ------- [81:255 -1:255 -2 0] -aodv:h 2 -aodv:c MESH_REQUES 
r 5.006503828 _111_ RTR  --- 0 AODV 34 [0 ffffffff 51 800] ------- [81:255 -1:255 -2 0] -aodv:h 2 -aodv:c MESH_REQUES 
r 5.006503828 _83_ RTR  --- 0 AODV 34 [0 ffffffff 51 800] ------- [81:255 -1:255 -2 0] -aodv:h 2 -aodv:c MESH_REQUES 
r 5.006503859 _110_ RTR  --- 0 AODV 34 [0 ffffffff 51 800] ------- [81:255 -1:255 -2 0] -aodv:h 2 -aodv:c MESH_REQUES 
r 5.006503859 _94_ RTR  --- 0 AODV 34 [0 ffffffff 51 800] ------- [81:255 -1:255 -2 0] -aodv:h 2 -aodv:c MESH_REQUES 
r 5.006503859 _64_ RTR  --- 0 AODV 34 [0 ffffffff 51 800] ------- [81:255 -1:255 -2 0] -aodv:h 2 -aodv:c MESH_REQUES 
r 5.006503859 _52_ RTR  --- 0 AODV 34 [0 ffffffff 51 800] ------- [81:255 -1:255 -2 0] -aodv:h 2 -aodv:c MESH_REQUES 
r 5.006503859 _112_ RTR  --- 0 AODV 34 [0 ffffffff 51 800] ------- [81:255 -1:255 -2 0] -aodv:h 2 -aodv:c MESH_REQUES 
r 5.006503859 _68_ RTR  --- 0 AODV 34 [0 ffffffff 51 800] ------- [81:255 -1:255 -2 0] -aodv:h 2 -aodv:c MESH_REQUES 
r 5.006503859 _98_ RTR  --- 0 AODV 34 [0 ffffffff 51 800] ------- [81:255 -1:255 -2 0] -aodv:h 2 -aodv:c MESH_REQUES 
s 5.006796902 _19_ RTR  --- 0 AODV 34 [0 ffffffff 21 800] ------- [19:255 -1:255 -2 0] -aodv:h 2 -aodv:c MESH_REQUES 
s 5.006845316 _20_ RTR  --- 0 AODV 34 [0 ffffffff 21 800] ------- [20:255 -1:255 -2 0] -aodv:h 2 -aodv:c MESH_REQUES 
r 5.006945608 _30_ RTR  --- 0 AODV 34 [0 ffffffff 2d 800] ------- [45:255 -1:255 -1 0] -aodv:h 1 -aodv:c MESH_REQUES 
r 5.006945608 _60_ RTR  --- 0 AODV 34 [0 ffffffff 2d 800] ------- [45:255 -1:255 -1 0] -aodv:h 1 -aodv:c MESH_REQUES 
r 5.006945608 _46_ RTR  --- 0 AODV 34 [0 ffffffff 2d 800] ------- [45:255 -1:255 -1 0] -aodv:h 1 -aodv:c MESH_REQUES 
r 5.006945663 _31_ RTR  --- 0 AODV 34 [0 ffffffff 2d 800] ------- [45:255 -1:255 -1 0] -aodv:h 1 -aodv:c MESH_REQUES 
r 5.006945741 _15_ RTR  --- 0 AODV 34 [0 ffffffff 2d 800] ------- [45:255 -1:255 -1 0] -aodv:h 1 -aodv:c MESH_REQUES 
r 5.006945741 _75_ RTR  --- 0 AODV 34 [0 ffffffff 2d 800] ------- [45:255 -1:255 -1 0] -aodv:h 1 -aodv:c MESH_REQUES 
r 5.006945741 _47_ RTR  --- 0 AODV 34 [0 ffffffff 2d 800] ------- [45:255 -1:255 -1 0] -aodv:h 1 -aodv:c MESH_REQUES 
r 5.006945773 _16_ RTR  --- 0 AODV 34 [0 ffffffff 2d 800] ------- [45:255 -1:255 -1 0] -aodv:h 1 -aodv:c MESH_REQUES 
r 5.006945773 _32_ RTR  --- 0 AODV 34 [0 ffffffff 2d 800] ------- [45:255 -1:255 -1 0] -aodv:h 1 -aodv:c MESH_REQUES 
s 5.006960620 _0_ RTR  --- 0 AODV 34 [0 ffffffff 1f 800] ------- [0:255 -1:255 -2 0] -aodv:h 2 -aodv:c MESH_REQUES 
s 5.007240572 _15_ RTR  --- 0 AODV 34 [0 ffffffff 1f 800] ------- [15:255 -1:255 -2 0] -aodv:h 2 -aodv:c MESH_REQUES 
s 5.007342742 _50_ RTR  --- 0 AODV 34 [0 ffffffff 40 800] ------- [50:255 -1:255 -2 0] -aodv:h 2 -aodv:c MESH_REQUES 
r 5.007409993 _97_ RTR  --- 0 AODV 34 [0 ffffffff 70 800] ------- [112:255 -1:255 -3 0] -aodv:h 3 -aodv:c MESH_REQUES 
r 5.007409993 _111_ RTR  --- 0 AODV 34 [0 ffffffff 70 800] ------- [112:255 -1:255 -3 0] -aodv:h 3 -aodv:c MESH_REQUES 
r 5.007409993 _113_ RTR  --- 0 AODV 34 [0 ffffffff 70 800] ------- [112:255 -1:255 -3 0] -aodv:h 3 -aodv:c MESH_REQUES 
r 5.007410048 _96_ RTR  --- 0 AODV 34 [0 ffffffff 70 800] ------- [112:255 -1:255 -3 0] -aodv:h 3 -aodv:c MESH_REQUES 
r 5.007410048 _98_ RTR  --- 0 AODV 34 [0 ffffffff 70 800] ------- [112:255 -1:255 -3 0] -aodv:h 3 -aodv:c MESH_REQUES 
r 5.007410126 _82_ RTR  --- 0 AODV 34 [0 ffffffff 70 800] ------- [112:255 -1:255 -3 0] -aodv:h 3 -aodv:c MESH_REQUES 
r 5.007410126 _110_ RTR  --- 0 AODV 34 [0 ffffffff 70 800] ------- [112:255 -1:255 -3 0] -aodv:h 3 -aodv:c MESH_REQUES 
r 5.007410126 _114_ RTR  --- 0 AODV 34 [0 ffffffff 70 800] ------- [112:255 -1:255 -3 0] -aodv:h 3 -aodv:c MESH_REQUES 
r 5.007410157 _81_ RTR  --- 0 AODV 34 [0 ffffffff 70 800] ------- [112:255 -1:255 -3 0] -aodv:h 3 -aodv:c MESH_REQUES 
r 5.007410157 _95_ RTR  --- 0 AODV 34 [0 ffffffff 70 800] ------- [112:255 -1:255 -3 0] -aodv:h 3 -aodv:c MESH_REQUES 
r 5.007410157 _83_ RTR  --- 0 AODV 34 [0 ffffffff 70 800] ------- [112:255 -1:255 -3 0] -aodv:h 3 -aodv:c MESH_REQUES 
r 5.007410157 _99_ RTR  --- 0 AODV 34 [0 ffffffff 70 800] ------- [112:255 -1:255 -3 0] -aodv:h 3 -aodv:c MESH_REQUES 
s 5.007684840 _78_ RTR  --- 0 AODV 34 [0 ffffffff 3e 800] ------- [78:255 -1:255 -1 0] -aodv:h 1 -aodv:c MESH_REQUES 
s 5.007696975 _91_ RTR  --- 0 AODV 34 [0 ffffffff 3e 800] ------- [91:255 -1:255 -1 0] -aodv:h 1 -aodv:c MESH_REQUES 
r 5.007831741 _15_ RTR  --- 0 AODV 34 [0 ffffffff 1e 800] ------- [30:255 -1:255 -2 0] -aodv:h 2 -aodv:c MESH_REQUES 
r 5.007831741 _45_ RTR  --- 0 AODV 34 [0 ffffffff 1e 800] ------- [30:255 -1:255 -2 0] -aodv:h 2 -aodv:c MESH_REQUES 
r 5.007831741 _31_ RTR  --- 0 AODV 34 [0 ffffffff 1e 800] ------- [30:255 -1:255 -2 0] -aodv:h 2 -aodv:c MESH_REQUES 
r 5.007831796 _16_ RTR  --- 0 AODV 34 [0 ffffffff 1e 800] ------- [30:255 -1:255 -2 0] -aodv:h 2 -aodv:c MESH_REQUES 
r 5.007831796 _46_ RTR  --- 0 AODV 34 [0 ffffffff 1e 800] ------- [30:255 -1:255 -2 0] -aodv:h 2 -aodv:c MESH_REQUES 
r 5.007831874 _0_ RTR  --- 0 AODV 34 [0 ffffffff 1e 800] ------- [30:255 -1:255 -2 0] -aodv:h 2 -aodv:c MESH_REQUES 
r 5.007831874 _60_ RTR  --- 0 AODV 34 [0 ffffffff 1e 800] ------- [30:255 -1:255 -2 0] -aodv:h 2 -aodv:c MESH_REQUES 
r 5.007831874 _32_ RTR  --- 0 AODV 34 [0 ffffffff 1e 800] ------- [30:255 -1:255 -2 0] -aodv:h 2 -aodv:c MESH_REQUES 
r 5.007831906 _1_ RTR  --- 0 AODV 34 [0 ffffffff 1e 800] ------- [30:255 -1:255 -2 0] -aodv:h 2 -aodv:c MESH_REQUES 
r 5.007831906 _61_ RTR  --- 0 AODV 34 [0 ffffffff 1e 800] ------- [30:255 -1:255 -2 0] -aodv:h 2 -aodv:c MESH_REQUES 
r 5.007831906 _17_ RTR  --- 0 AODV 34 [0 ffffffff 1e 800] ------- [30:255 -1:255 -2 0] -aodv:h 2 -aodv:c MESH_REQUES 
r 5.007831906 _47_ RTR  --- 0 AODV 34 [0 ffffffff 1e 800] ------- [30:255 -1:255 -2 0] -aodv:h 2 -aodv:c MESH_REQUES 
r 5.008657874 _0_ RTR  --- 0 AODV 34 [0 ffffffff f 800] ------- [15:255 -1:255 -2 0] -aodv:h 2 -aodv:c MESH_REQUES 
r 5.008657874 _30_ RTR  --- 0 AODV 34 [0 ffffffff f 800] ------- [15:255 -1:255 -2 0] -aodv:h 2 -aodv:c MESH_REQUES 
r 5.008657874 _16_ RTR  --- 0 AODV 34 [0 ffffffff f 800] ------- [15:255 -1:255 -2 0] -aodv:h 2 -aodv:c MESH_REQUES 
r 5.008657930 _1_ RTR  --- 0 AODV 34 [0 ffffffff f 800] ------- [15:255 -1:255 -2 0] -aodv:h 2 -aodv:c MESH_REQUES 
r 5.008657930 _31_ RTR  --- 0 AODV 34 [0 ffffffff f 800] ------- [15:255 -1:255 -2 0] -aodv:h 2 -aodv:c MESH_REQUES 
r 5.008658008 _45_ RTR  --- 0 AODV 34 [0 ffffffff f 800] ------- [15:255 -1:255 -2 0] -aodv:h 2 -aodv:c MESH_REQUES 
r 5.008658008 _17_ RTR  --- 0 AODV 34 [0 ffffffff f 800] ------- [15:255 -1:255 -2 0] -aodv:h 2 -aodv:c MESH_REQUES 
r 5.008658039 _46_ RTR  --- 0 AODV 34 [0 ffffffff f 800] ------- [15:255 -1:255 -2 0] -aodv:h 2 -aodv:c MESH_REQUES 
r 5.008658039 _2_ RTR  --- 0 AODV 34 [0 ffffffff f 800] ------- [15:255 -1:255 -2 0] -aodv:h 2 -aodv:c MESH_REQUES 
r 5.008658039 _32_ RTR  --- 0 AODV 34 [0 ffffffff f 800] ------- [15:255 -1:255 -2 0] -aodv:h 2 -aodv:c MESH_REQUES 
r 5.008676181 _81_ RTR  --- 0 AODV 34 [0 ffffffff 60 800] ------- [96:255 -1:255 -3 0] -aodv:h 3 -aodv:c MESH_REQUES 
r 5.008676181 _95_ RTR  --- 0 AODV 34 [0 ffffffff 60 800] ------- [96:255 -1:255 -3 0] -aodv:h 3 -aodv:c MESH_REQUES 
r 5.008676181 _111_ RTR  --- 0 AODV 34 [0 ffffffff 60 800] ------- [96:255 -1:255 -3 0] -aodv:h 3 -aodv:c MESH_REQUES 
r 5.008676181 _97_ RTR  --- 0 AODV 34 [0 ffffffff 60 800] ------- [96:255 -1:255 -3 0] -aodv:h 3 -aodv:c MESH_REQUES 
r 5.008676236 _110_ RTR  --- 0 AODV 34 [0 ffffffff 60 800] ------- [96:255 -1:255 -3 0] -aodv:h 3 -aodv:c MESH_REQUES 
r 5.008676236 _80_ RTR  --- 0 AODV 34 [0 ffffffff 60 800] ------- [96:255 -1:255 -3 0] -aodv:h 3 -aodv:c MESH_REQUES 
r 5.008676236 _82_ RTR  --- 0 AODV 34 [0 ffffffff 60 800] ------- [96:255 -1:255 -3 0] -aodv:h 3 -aodv:c MESH_REQUES 
r 5.008676236 _112_ RTR  --- 0 AODV 34 [0 ffffffff 60 800] ------- [96:255 -1:255 -3 0] -aodv:h 3 -aodv:c MESH_REQUES 
r 5.008676314 _66_ RTR  --- 0 AODV 34 [0 ffffffff 60 800] ------- [96:255 -1:255 -3 0] -aodv:h 3 -aodv:c MESH_REQUES 
r 5.008676314 _94_ RTR  --- 0 AODV 34 [0 ffffffff 60 800] ------- [96:255 -1:255 -3 0] -aodv:h 3 -aodv:c MESH_REQUES 
r 5.008676314 _98_ RTR  --- 0 AODV 34 [0 ffffffff 60 800] ------- [96:255 -1:255 -3 0] -aodv:h 3 -aodv:c MESH_REQUES 
r 5.008676346 _65_ RTR  --- 0 AODV 34 [0 ffffffff 60 800] ------- [96:255 -1:255 -3 0] -aodv:h 3 -aodv:c MESH_REQUES 
r 5.008676346 _109_ RTR  --- 0 AODV 34 [0 ffffffff 60 800] ------- [96:255 -1:255 -3 0] -aodv:h 3 -aodv:c MESH_REQUES 
r 5.008676346 _79_ RTR  --- 0 AODV 34 [0 ffffffff 60 800] ------- [96:255 -1:255 -3 0] -aodv:h 3 -aodv:c MESH_REQUES 
r 5.008676346 _67_ RTR  --- 0 AODV 34 [0 ffffffff 60 800] ------- [96:255 -1:255 -3 0] -aodv:h 3 -aodv:c MESH_REQUES 
r 5.008676346 _83_ RTR  --- 0 AODV 34 [0 ffffffff 60 800] ------- [96:255 -1:255 -3 0] -aodv:h 3 -aodv:c MESH_REQUES 
r 5.008676346 _113_ RTR  --- 0 AODV 34 [0 ffffffff 60 800] ------- [96:255 -1:255 -3 0] -aodv:h 3 -aodv:c MESH_REQUES 
s 5.009267968 _34_ RTR  --- 0 AODV 34 [0 ffffffff 2f 800] ------- [34:255 -1:255 -2 0] -aodv:h 2 -aodv:c MESH_REQUES 
s 5.009287688 _63_ RTR  --- 0 AODV 34 [0 ffffffff 3e 800] ------- [63:255 -1:255 -1 0] -aodv:h 1 -aodv:c MESH_REQUES 
s 5.009366584 _49_ RTR  --- 0 AODV 34 [0 ffffffff 3e 800] ------- [49:255 -1:255 -1 0] -aodv:h 1 -aodv:c MESH_REQUES 
s 5.009460949 _46_ RTR  --- 0 AODV 34 [0 ffffffff 3e 800] ------- [46:255 -1:255 -1 0] -aodv:h 1 -aodv:c MESH_REQUES 
r 5.009464173 _17_ RTR  --- 0 AODV 34 [0 ffffffff 20 800] ------- [32:255 -1:255 -1 0] -aodv:h 1 -aodv:c MESH_REQUES 
r 5.009464173 _31_ RTR  --- 0 AODV 34 [0 ffffffff 20 800] ------- [32:255 -1:255 -1 0] -aodv:h 1 -aodv:c MESH_REQUES 
r 5.009464173 _47_ RTR  --- 0 AODV 34 [0 ffffffff 20 800] ------- [32:255 -1:255 -1 0] -aodv:h 1 -aodv:c MESH_REQUES 
r 5.009464173 _33_ RTR  --- 0 AODV 34 [0 ffffffff 20 800] ------- [32:255 -1:255 -1 0] -aodv:h 1 -aodv:c MESH_REQUES 
r 5.009464228 _46_ RTR  --- 0 AODV 34 [0 ffffffff 20 800] ------- [32:255 -1:255 -1 0] -aodv:h 1 -aodv:c MESH_REQUES 
r 5.009464228 _16_ RTR  --- 0 AODV 34 [0 ffffffff 20 800] ------- [32:255 -1:255 -1 0] -aodv:h 1 -aodv:c MESH_REQUES 
r 5.009464228 _18_ RTR  --- 0 AODV 34 [0 ffffffff 20 800] ------- [32:255 -1:255 -1 0] -aodv:h 1 -aodv:c MESH_REQUES 
r 5.009464228 _48_ RTR  --- 0 AODV 34 [0 ffffffff 20 800] ------- [32:255 -1:255 -1 0] -aodv:h 1 -aodv:c MESH_REQUES 
r 5.009464306 _2_ RTR  --- 0 AODV 34 [0 ffffffff 20 800] ------- [32:255 -1:255 -1 0] -aodv:h 1 -aodv:c MESH_REQUES 
r 5.009464306 _30_ RTR  --- 0 AODV 34 [0 ffffffff 20 800] ------- [32:255 -1:255 -1 0] -aodv:h 1 -aodv:c MESH_REQUES 
r 5.009464306 _62_ RTR  --- 0 AODV 34 [0 ffffffff 20 800] ------- [32:255 -1:255 -1 0] -aodv:h 1 -aodv:c MESH_REQUES 
r 5.009464306 _34_ RTR  --- 0 AODV 34 [0 ffffffff 20 800] ------- [32:255 -1:255 -1 0] -aodv:h 1 -aodv:c MESH_REQUES 
r 5.009464337 _61_ RTR  --- 0 AODV 34 [0 ffffffff 20 800] ------- [32:255 -1:255 -1 0] -aodv:h 1 -aodv:c MESH_REQUES 
r 5.009464337 _1_ RTR  --- 0 AODV 34 [0 ffffffff 20 800] ------- [32:255 -1:255 -1 0] -aodv:h 1 -aodv:c MESH_REQUES 
r 5.009464337 _45_ RTR  --- 0 AODV 34 [0 ffffffff 20 800] ------- [32:255 -1:255 -1 0] -aodv:h 1 -aodv:c MESH_REQUES 
r 5.009464337 _15_ RTR  --- 0 AODV 34 [0 ffffffff 20 800] ------- [32:255 -1:255 -1 0] -aodv:h 1 -aodv:c MESH_REQUES 
r 5.009464337 _3_ RTR  --- 0 AODV 34 [0 ffffffff 20 800] ------- [32:255 -1:255 -1 0] -aodv:h 1 -aodv:c MESH_REQUES 
r 5.009464337 _63_ RTR  --- 0 AODV 34 [0 ffffffff 20 800] ------- [32:255 -1:255 -1 0] -aodv:h 1 -aodv:c MESH_REQUES 
r 5.009464337 _19_ RTR  --- 0 AODV 34 [0 ffffffff 20 800] ------- [32:255 -1:255 -1 0] -aodv:h 1 -aodv:c MESH_REQUES 
r 5.009464337 _49_ RTR  --- 0 AODV 34 [0 ffffffff 20 800] ------- [32:255 -1:255 -1 0] -aodv:h 1 -aodv:c MESH_REQUES 
s 5.009659502 _60_ RTR  --- 0 AODV 34 [0 ffffffff 3e 800] ------- [60:255 -1:255 -1 0] -aodv:h 1 -aodv:c MESH_REQUES 
s 5.009669871 _82_ RTR  --- 0 AODV 34 [0 ffffffff 5f 800] ------- [82:255 -1:255 -3 0] -aodv:h 3 -aodv:c MESH_REQUES 
s 5.009675294 _2_ RTR  --- 0 AODV 34 [0 ffffffff 21 800] ------- [2:255 -1:255 -2 0] -aodv:h 2 -aodv:c MESH_REQUES 
s 5.009893575 _75_ RTR  --- 0 AODV 34 [0 ffffffff 3e 800] ------- [75:255 -1:255 -1 0] -aodv:h 1 -aodv:c MESH_REQUES 
s 5.010064414 _83_ RTR  --- 0 AODV 34 [0 ffffffff 51 800] ------- [83:255 -1:255 -3 0] -aodv:h 3 -aodv:c MESH_REQUES 